pySIMM System Object

804 atoms
610 bonds
608 angles
654 dihedrals
0 impropers

7 atom types
6 bond types
9 angle types
7 dihedral types

-12.647666 12.647666 xlo xhi
-12.647666 12.647666 ylo yhi
-12.647666 12.647666 zlo zhi

Masses

   1	1.008	# h1
   2	12.01	# c3
   3	1.008	# ho
   4	1.008	# hc
   5	16.0	# oh
   6	15.99491	# ow
   7	1.00797	# hw

Pair Coeffs

   1	0.0208	2.4219972551363265	# h1
   2	0.1078	3.397709531243626	# c3
   3	0.0047	0.5379246460131368	# ho
   4	0.0208	2.600176998764394	# hc
   5	0.093	3.242871334030835	# oh
   6	0.1521	3.1507	# ow
   7	0.0	1.098	# hw

Bond Coeffs

   1	375.92	1.097	# c3,h1
   2	563.51	0.973	# ho,oh
   3	232.52	1.538	# c3,c3
   4	375.92	1.097	# c3,hc
   5	293.4	1.423	# c3,oh
   6	553.0	0.9572	# ow,hw

Angle Coeffs

   1	49.027	107.26	# c3,oh,ho
   2	62.54	110.26	# h1,c3,oh
   3	84.642	110.19	# c3,c3,oh
   4	46.868	109.56	# c3,c3,h1
   5	38.802	108.46	# h1,c3,h1
   6	38.96	107.58	# hc,c3,hc
   7	46.816	109.8	# c3,c3,hc
   8	64.888	111.51	# c3,c3,c3
   9	100.0	104.52	# hw,ow,hw

Dihedral Coeffs

   1	2	0.18	3	0	0.51	1	0	# hc,c3,c3,oh
   2	1	0.15555555555555556	3	0	# X,c3,c3,X
   3	1	0.113	3	0	# ho,oh,c3,h1
   4	1	0.0	3	0	# ho,oh,c3,c3
   5	1	0.21	3	0	# oh,c3,c3,c3
   6	2	0.08	3	0	0.08	3	0	# hc,c3,c3,c3
   7	3	0.13	3	0	0.29	2	180	0.11	1	0	# c3,c3,c3,c3

Atoms

   1	1	5	-0.441186	0.3475	10.5349	10.5567
   2	1	2	0.00861157	0.686884	9.17928	10.8405
   3	1	2	-0.121293	-0.280828	8.57927	11.8296
   4	1	1	0.0767721	0.686599	8.59828	9.90014
   5	1	1	0.0767721	1.73844	9.1139	11.1354
   6	1	4	0.0638532	-1.29402	8.82158	11.5828
   7	1	4	0.0638532	-0.0996874	9.12878	-12.5133
   8	1	3	0.272617	0.0972468	10.7904	11.4564
   9	1	5	-0.41951	-0.656205	6.70381	-12.1148
  10	1	2	-0.017451	-0.109785	7.00661	11.9193
  11	1	2	-0.103126	-0.714208	6.20168	10.692
  12	1	1	0.119187	0.938857	6.78482	11.9074
  13	1	4	0.0694559	-0.129238	6.47944	9.84268
  14	1	4	0.0694559	-1.72635	6.6398	10.5257
  15	1	3	0.281988	-0.0581482	6.9813	-11.4002
  16	1	5	-0.41951	0.746713	4.34024	11.1614
  17	1	2	-0.017451	-0.598221	4.67745	10.888
  18	1	2	-0.103126	-1.15109	3.80683	9.73103
  19	1	1	0.119187	-1.26439	4.47909	11.7249
  20	1	4	0.0694559	-1.12628	2.80199	10.1363
  21	1	4	0.0694559	-2.23788	4.04447	9.61344
  22	1	3	0.281988	0.752161	3.39796	11.4339
  23	1	5	-0.41951	-0.698776	5.10779	7.77702
  24	1	2	-0.017451	-0.457434	3.81976	8.34319
  25	1	2	-0.103126	-0.956781	2.72041	7.44044
  26	1	1	0.119187	0.601671	3.54519	8.3897
  27	1	4	0.0694559	-1.01836	1.85634	8.06702
  28	1	4	0.0694559	-1.95856	2.95965	7.10318
  29	1	3	0.281988	-0.203031	5.75583	8.31512
  30	1	5	-0.41951	1.17942	1.9118	6.58666
  31	1	2	-0.017451	-0.0744972	2.52018	6.23972
  32	1	2	-0.103126	-0.749024	1.58711	5.14086
  33	1	1	0.119187	0.141591	3.46828	5.805
  34	1	4	0.0694559	-1.04287	0.567612	5.47476
  35	1	4	0.0694559	-0.0129366	1.50398	4.30098
  36	1	3	0.281988	1.94392	2.52849	6.61596
  37	1	5	-0.41951	-1.7616	3.54497	4.00085
  38	1	2	-0.017451	-1.98654	2.25942	4.52266
  39	1	2	-0.103126	-2.63511	1.24819	3.457
  40	1	1	0.119187	-2.70064	2.30831	5.33896
  41	1	4	0.0694559	-1.84466	0.857942	2.79919
  42	1	4	0.0694559	-2.96971	0.356324	4.03908
  43	1	3	0.281988	-1.16164	3.94993	4.6467
  44	1	5	-0.41951	-4.6452	2.50529	3.24877
  45	1	2	-0.017451	-3.81512	1.6879	2.53398
  46	1	2	-0.103126	-3.15478	2.38787	1.25709
  47	1	1	0.119187	-4.38267	0.808614	2.2174
  48	1	4	0.0694559	-2.50383	3.24941	1.54066
  49	1	4	0.0694559	-2.41206	1.62428	0.971998
  50	1	3	0.281988	-4.15748	3.04437	3.90801
  51	1	5	-0.41951	-4.99278	3.77875	0.579641
  52	1	2	-0.017451	-4.11452	2.72964	0.108622
  53	1	2	-0.103126	-3.41753	3.13517	-1.15787
  54	1	1	0.119187	-4.81367	1.87759	-0.0717426
  55	1	4	0.0694559	-4.17538	3.68516	-1.78222
  56	1	4	0.0694559	-2.58657	3.87559	-0.940289
  57	1	3	0.281988	-4.42974	4.37349	1.10811
  58	1	5	-0.41951	-3.87403	1.21965	-2.62301
  59	1	2	-0.017451	-2.87126	2.01895	-2.03387
  60	1	2	-0.103126	-1.8434	2.48222	-3.15383
  61	1	1	0.119187	-2.38344	1.40652	-1.25891
  62	1	4	0.0694559	-2.41265	3.13749	-3.82905
  63	1	4	0.0694559	-1.04478	3.13399	-2.76237
  64	1	3	0.281988	-4.03379	0.450048	-2.04598
  65	1	5	-0.41951	-0.527826	0.471341	-2.94437
  66	1	2	-0.017451	-1.18467	1.3112	-3.9127
  67	1	2	-0.103126	-0.209707	1.85103	-5.08045
  68	1	1	0.119187	-2.037	0.779502	-4.39267
  69	1	4	0.0694559	0.750871	2.14503	-4.65908
  70	1	4	0.0694559	-0.665679	2.81334	-5.48373
  71	1	3	0.281988	0.168785	-0.0313694	-3.42447
  72	1	5	-0.41951	-1.33469	0.767039	-6.82758
  73	1	2	-0.017451	-0.0599628	0.864533	-6.26096
  74	1	2	-0.103126	0.300643	-0.593315	-5.87508
  75	1	1	0.119187	0.661019	1.14782	-7.00247
  76	1	4	0.0694559	-0.364647	-0.967948	-5.06566
  77	1	4	0.0694559	0.144629	-1.27295	-6.77419
  78	1	3	0.281988	-1.66324	1.68679	-6.81856
  79	1	5	-0.41951	1.94782	-0.391046	-4.1865
  80	1	2	-0.017451	1.73315	-0.828199	-5.54316
  81	1	2	-0.103126	2.1249	-2.3084	-5.63481
  82	1	1	0.119187	2.3996	-0.309127	-6.27081
  83	1	4	0.0694559	1.31639	-2.89223	-5.24094
  84	1	4	0.0694559	2.23557	-2.6262	-6.68209
  85	1	3	0.281988	2.49976	0.420546	-4.21524
  86	1	5	-0.41951	4.48116	-1.93194	-5.60582
  87	1	2	-0.017451	3.43971	-2.61473	-4.96798
  88	1	2	-0.103126	3.85552	-4.09016	-4.92995
  89	1	1	0.119187	3.35488	-2.20671	-3.9486
  90	1	4	0.0694559	3.11218	-4.58913	-4.28062
  91	1	4	0.0694559	3.81141	-4.53777	-5.90879
  92	1	3	0.281988	4.78826	-2.36605	-6.42329
  93	1	5	-0.41951	5.1263	-3.95459	-2.79311
  94	1	2	-0.017451	5.12305	-4.33887	-4.20851
  95	1	2	-0.103126	5.31429	-5.84079	-4.26968
  96	1	1	0.119187	5.92629	-3.81975	-4.79672
  97	1	4	0.0694559	4.70751	-6.35394	-3.44882
  98	1	4	0.0694559	4.99075	-6.33677	-5.21732
  99	1	3	0.281988	5.39757	-3.0239	-2.72622
 100	1	5	-0.41951	7.40799	-6.23405	-5.38972
 101	1	2	-0.017451	6.7978	-6.2159	-4.12761
 102	1	2	-0.103126	6.97576	-7.57953	-3.46828
 103	1	1	0.119187	7.29683	-5.44088	-3.53186
 104	1	4	0.0694559	6.82025	-8.41863	-4.18943
 105	1	4	0.0694559	6.23455	-7.79248	-2.71984
 106	1	3	0.281988	8.36507	-6.15333	-5.21326
 107	1	5	-0.422467	9.32012	-7.93823	-3.61616
 108	1	2	-0.0328361	8.28769	-7.83921	-2.65219
 109	1	2	-0.043492	8.66386	-6.77444	-1.57191
 110	1	1	0.112764	8.20824	-8.77442	-2.13037
 111	1	4	0.0348444	7.87869	-6.04399	-1.46013
 112	1	4	0.0348444	9.0023	-7.29109	-0.651194
 113	1	4	0.0348444	9.58383	-6.23273	-1.81463
 114	1	3	0.281498	9.92811	-7.21579	-3.36195
 115	2	5	-0.441186	0.85476	-9.11141	-9.88044
 116	2	2	0.00861157	-0.190578	-9.3821	-10.9147
 117	2	2	-0.121293	0.557919	-9.66309	-12.3025
 118	2	1	0.0767721	-0.781782	-10.2934	-10.7708
 119	2	1	0.0767721	-0.866407	-8.55265	-11.0288
 120	2	4	0.0638532	-0.0977271	-10.2655	12.3632
 121	2	4	0.0638532	1.41824	-10.2542	-12.0142
 122	2	3	0.272617	1.29114	-9.96828	-9.65356
 123	2	5	-0.41951	1.39497	-7.45164	-12.1877
 124	2	2	-0.017451	0.870778	-8.41786	12.1636
 125	2	2	-0.103126	1.83558	-8.67158	10.9823
 126	2	1	0.119187	-0.0155446	-7.99819	11.7278
 127	2	4	0.0694559	1.33592	-9.11818	10.1518
 128	2	4	0.0694559	2.52741	-9.36698	11.4015
 129	2	3	0.281988	0.972666	-7.68742	-11.3326
 130	2	5	-0.41951	1.55201	-6.42592	9.96573
 131	2	2	-0.017451	2.48651	-7.41689	10.3713
 132	2	2	-0.103126	3.39854	-7.77918	9.13787
 133	2	1	0.119187	3.23114	-7.01291	11.1195
 134	2	4	0.0694559	2.72937	-7.98868	8.31716
 135	2	4	0.0694559	3.93379	-6.92336	8.82872
 136	2	3	0.281988	0.82079	-6.83051	9.4661
 137	2	5	-0.41951	5.466	-8.36603	10.2878
 138	2	2	-0.017451	4.4715	-8.82571	9.39407
 139	2	2	-0.103126	5.14506	-9.25977	8.08057
 140	2	1	0.119187	3.97855	-9.68249	9.79777
 141	2	4	0.0694559	4.36767	-9.43133	7.33553
 142	2	4	0.0694559	5.8226	-8.4566	7.67482
 143	2	3	0.281988	6.3095	-8.70894	9.92395
 144	2	5	-0.41951	7.26362	-10.1691	8.85926
 145	2	2	-0.017451	6.0443	-10.533	8.10331
 146	2	2	-0.103126	5.45239	-11.8025	8.8285
 147	2	1	0.119187	6.31795	-10.8133	7.05784
 148	2	4	0.0694559	4.38954	-11.9378	8.55592
 149	2	4	0.0694559	5.45778	-11.657	9.92506
 150	2	3	0.281988	7.57556	-10.9581	9.35563
 151	2	5	-0.41951	7.52333	12.4627	8.88794
 152	2	2	-0.017451	6.23007	12.2595	8.4655
 153	2	2	-0.103126	5.48058	10.9845	9.04286
 154	2	1	0.119187	6.17037	12.1647	7.33937
 155	2	4	0.0694559	5.84799	10.8748	10.0493
 156	2	4	0.0694559	4.40136	11.1235	9.18232
 157	2	3	0.281988	7.70158	11.6415	9.38627
 158	2	5	-0.41951	7.16424	9.532	8.31531
 159	2	2	-0.017451	5.7805	9.68565	8.25494
 160	2	2	-0.103126	5.14844	8.43071	8.91693
 161	2	1	0.119187	5.43467	9.75433	7.20187
 162	2	4	0.0694559	5.68383	8.13939	9.84786
 163	2	4	0.0694559	4.11669	8.66735	9.24573
 164	2	3	0.281988	7.32855	8.69271	8.78429
 165	2	5	-0.41951	6.31072	6.69873	7.68192
 166	2	2	-0.017451	5.00092	7.15422	8.01389
 167	2	2	-0.103126	4.33411	6.14777	9.00239
 168	2	1	0.119187	4.2723	7.31304	7.11233
 169	2	4	0.0694559	4.89524	6.13744	9.94266
 170	2	4	0.0694559	3.3709	6.5193	9.27116
 171	2	3	0.281988	6.28036	6.73096	6.71519
 172	2	5	-0.41951	3.24428	4.75615	7.40147
 173	2	2	-0.017451	4.0989	4.70227	8.52188
 174	2	2	-0.103126	5.43982	3.87985	8.14746
 175	2	1	0.119187	3.49372	4.11711	9.28134
 176	2	4	0.0694559	5.83475	4.09134	7.13381
 177	2	4	0.0694559	6.22172	4.22823	8.81541
 178	2	3	0.281988	2.78401	5.61198	7.29367
 179	2	5	-0.41951	4.94143	1.90851	9.58527
 180	2	2	-0.017451	5.45076	2.31307	8.31725
 181	2	2	-0.103126	6.81549	1.69889	8.20101
 182	2	1	0.119187	4.69935	2.0366	7.52814
 183	2	4	0.0694559	6.89214	0.807885	8.84674
 184	2	4	0.0694559	7.59918	2.35919	8.58258
 185	2	3	0.281988	5.63615	1.63371	10.221
 186	2	5	-0.41951	7.75033	2.43057	5.9616
 187	2	2	-0.017451	7.32592	1.33347	6.76186
 188	2	2	-0.103126	6.25929	0.601338	5.93748
 189	2	1	0.119187	8.17097	0.70266	6.96718
 190	2	4	0.0694559	5.58908	0.0625492	6.63321
 191	2	4	0.0694559	5.5877	1.3894	5.51478
 192	2	3	0.281988	8.58897	2.75831	6.34288
 193	2	5	-0.41951	7.75369	-1.20933	5.41039
 194	2	2	-0.017451	6.77083	-0.314256	4.86819
 195	2	2	-0.103126	5.62324	-1.06632	4.13323
 196	2	1	0.119187	7.30083	0.300566	4.16769
 197	2	4	0.0694559	4.8743	-1.46845	4.82719
 198	2	4	0.0694559	5.02437	-0.342124	3.63509
 199	2	3	0.281988	7.47297	-1.49544	6.29675
 200	2	5	-0.41951	6.50959	-1.60653	1.90013
 201	2	2	-0.017451	6.03367	-2.19896	3.12996
 202	2	2	-0.103126	5.05843	-3.4225	2.91619
 203	2	1	0.119187	6.84659	-2.68815	3.61106
 204	2	4	0.0694559	4.30547	-3.06312	2.24665
 205	2	4	0.0694559	4.61733	-3.83639	3.84363
 206	2	3	0.281988	7.35527	-1.16344	2.10547
 207	2	5	-0.41951	6.50141	-5.37564	3.06611
 208	2	2	-0.017451	5.85682	-4.50878	2.15063
 209	2	2	-0.103126	4.97499	-5.26861	1.1308
 210	2	1	0.119187	6.62148	-3.9486	1.57147
 211	2	4	0.0694559	5.69016	-5.86184	0.475188
 212	2	4	0.0694559	4.5244	-4.53061	0.473116
 213	2	3	0.281988	7.38422	-4.979	3.21227
 214	2	5	-0.41951	4.41146	-7.32732	2.46426
 215	2	2	-0.017451	3.84419	-6.19583	1.8223
 216	2	2	-0.103126	2.90105	-6.69889	0.644515
 217	2	1	0.119187	3.22127	-5.49802	2.42818
 218	2	4	0.0694559	2.43493	-5.85714	0.132853
 219	2	4	0.0694559	2.11016	-7.297	1.05475
 220	2	3	0.281988	5.38911	-7.24985	2.45199
 221	2	5	-0.422467	4.28345	-8.66909	0.0154273
 222	2	2	-0.0328361	3.67212	-7.4816	-0.488003
 223	2	2	-0.043492	2.77278	-7.84081	-1.72454
 224	2	1	0.112764	4.42305	-6.78584	-0.904506
 225	2	4	0.0348444	3.40752	-8.31677	-2.46932
 226	2	4	0.0348444	1.93746	-8.52853	-1.47961
 227	2	4	0.0348444	2.33207	-6.93041	-2.15223
 228	2	3	0.281498	4.90241	-8.48551	0.751934
 229	3	6	-0.834	-4.44803	3.55298	-8.17549
 230	3	7	0.417	-4.93625	4.37948	-8.24445
 231	3	7	0.417	-5.06219	2.90447	-8.54647
 232	4	6	-0.834	2.06135	5.094	3.32465
 233	4	7	0.417	2.63559	5.85873	3.51877
 234	4	7	0.417	1.26823	5.55727	2.99721
 235	5	6	-0.834	8.81123	1.94569	-4.55465
 236	5	7	0.417	8.40507	2.09138	-3.699
 237	5	7	0.417	9.56861	2.55088	-4.5684
 238	6	6	-0.834	-8.85316	0.784742	2.6436
 239	6	7	0.417	-8.1396	1.04445	3.24857
 240	6	7	0.417	-8.43186	0.864496	1.76575
 241	7	6	-0.834	10.689	6.77551	0.395591
 242	7	7	0.417	10.8114	5.97497	0.915587
 243	7	7	0.417	10.9908	7.46977	0.974221
 244	8	6	-0.834	-3.70094	3.30352	-11.8834
 245	8	7	0.417	-3.28529	2.48103	-11.5434
 246	8	7	0.417	-3.66444	3.20976	12.444
 247	9	6	-0.834	-9.08039	6.22406	-7.36988
 248	9	7	0.417	-9.39114	5.33465	-7.1227
 249	9	7	0.417	-8.43645	6.01601	-8.07469
 250	10	6	-0.834	11.012	6.95339	-11.2467
 251	10	7	0.417	10.6162	7.83219	-11.2844
 252	10	7	0.417	11.9213	7.10037	-11.5318
 253	11	6	-0.834	-8.37662	-10.0046	-12.4171
 254	11	7	0.417	-8.31633	-9.48599	12.0721
 255	11	7	0.417	-9.21309	-9.70225	-12.0384
 256	12	6	-0.834	-2.77198	1.61702	11.3298
 257	12	7	0.417	-2.8988	1.20722	10.4707
 258	12	7	0.417	-3.36959	1.12892	11.9138
 259	13	6	-0.834	0.547515	-7.19858	7.08465
 260	13	7	0.417	-0.290014	-7.6395	6.83654
 261	13	7	0.417	1.12604	-7.93414	7.30952
 262	14	6	-0.834	0.970816	-4.66942	12.6248
 263	14	7	0.417	0.592093	-5.53956	12.3741
 264	14	7	0.417	1.91251	-4.87926	12.6276
 265	15	6	-0.834	9.63245	-8.36985	-8.32368
 266	15	7	0.417	10.2183	-9.14087	-8.2756
 267	15	7	0.417	9.72597	-7.96779	-7.44888
 268	16	6	-0.834	8.85071	8.44884	-10.3151
 269	16	7	0.417	9.17698	9.34941	-10.2797
 270	16	7	0.417	9.27524	8.04716	-9.5492
 271	17	6	-0.834	-4.96176	5.25436	-10.7744
 272	17	7	0.417	-4.53262	4.41525	-11.0197
 273	17	7	0.417	-4.22301	5.77705	-10.4369
 274	18	6	-0.834	-3.38147	-1.49672	-7.36562
 275	18	7	0.417	-3.76898	-0.85147	-6.75227
 276	18	7	0.417	-2.83968	-0.967371	-7.95837
 277	19	6	-0.834	-10.8308	-1.35173	0.902459
 278	19	7	0.417	-9.88463	-1.34301	0.69201
 279	19	7	0.417	-10.9593	-0.453791	1.25341
 280	20	6	-0.834	2.99855	-0.990486	7.80296
 281	20	7	0.417	2.1423	-1.1973	8.19394
 282	20	7	0.417	3.18309	-0.192408	8.30896
 283	21	6	-0.834	4.04399	3.16351	3.35268
 284	21	7	0.417	3.1525	3.41415	3.61473
 285	21	7	0.417	4.60381	3.51562	4.05231
 286	22	6	-0.834	-9.12172	-4.76075	-12.1208
 287	22	7	0.417	-8.37184	-5.20026	-11.7087
 288	22	7	0.417	-9.85136	-5.33583	-11.8138
 289	23	6	-0.834	-10.1008	8.79849	-9.3191
 290	23	7	0.417	-9.92529	9.73751	-9.12989
 291	23	7	0.417	-9.44111	8.58877	-10.0066
 292	24	6	-0.834	-3.16023	-6.34427	-11.1381
 293	24	7	0.417	-2.49535	-7.02061	-10.957
 294	24	7	0.417	-2.94528	-5.65579	-10.4878
 295	25	6	-0.834	5.99521	1.62968	-10.1441
 296	25	7	0.417	6.466	2.26603	-10.7276
 297	25	7	0.417	6.28741	1.87086	-9.25228
 298	26	6	-0.834	-8.90642	-7.63909	-7.653
 299	26	7	0.417	-8.5212	-7.89082	-8.51361
 300	26	7	0.417	-9.75913	-8.07875	-7.62712
 301	27	6	-0.834	1.08201	3.85746	0.518442
 302	27	7	0.417	1.07482	2.94965	0.859577
 303	27	7	0.417	1.33402	4.36601	1.31327
 304	28	6	-0.834	9.24516	4.65599	-12.0846
 305	28	7	0.417	9.70731	5.42097	-11.701
 306	28	7	0.417	9.18258	4.94043	12.2903
 307	29	6	-0.834	-11.5185	0.933421	11.2784
 308	29	7	0.417	-11.0435	1.05759	12.1003
 309	29	7	0.417	-12.4406	1.02746	11.527
 310	30	6	-0.834	-7.81819	2.92901	6.13049
 311	30	7	0.417	-7.40729	3.72863	5.79235
 312	30	7	0.417	-7.42317	2.20573	5.58934
 313	31	6	-0.834	-6.40686	8.6615	9.31714
 314	31	7	0.417	-6.37708	8.84589	8.35927
 315	31	7	0.417	-6.9374	7.85409	9.34939
 316	32	6	-0.834	12.0604	12.6651	2.87049
 317	32	7	0.417	11.2833	-12.2624	3.32019
 318	32	7	0.417	12.0415	-12.2334	1.96094
 319	33	6	-0.834	-11.2807	1.219	1.84768
 320	33	7	0.417	-10.3618	1.14958	2.17824
 321	33	7	0.417	-11.5977	2.03146	2.25868
 322	34	6	-0.834	8.60342	-7.1159	6.53895
 323	34	7	0.417	7.83527	-6.53213	6.62624
 324	34	7	0.417	8.846	-7.25096	7.478
 325	35	6	-0.834	-2.99577	6.55771	-8.95907
 326	35	7	0.417	-2.05281	6.54056	-9.18627
 327	35	7	0.417	-3.03412	6.09821	-8.10603
 328	36	6	-0.834	-7.39921	-2.07156	7.43669
 329	36	7	0.417	-8.15318	-2.6	7.75057
 330	36	7	0.417	-7.82113	-1.49629	6.77658
 331	37	6	-0.834	-7.96685	-6.56194	10.9495
 332	37	7	0.417	-8.73283	-6.13712	11.3324
 333	37	7	0.417	-7.22914	-6.00626	11.2084
 334	38	6	-0.834	0.896218	-2.50913	4.47468
 335	38	7	0.417	0.288114	-2.92806	5.08757
 336	38	7	0.417	1.01882	-1.62617	4.829
 337	39	6	-0.834	6.61403	3.96581	-11.378
 338	39	7	0.417	7.48892	4.28781	-11.6479
 339	39	7	0.417	6.00586	4.68123	-11.5987
 340	40	6	-0.834	2.53794	-1.1313	2.97423
 341	40	7	0.417	3.40129	-1.47961	2.75194
 342	40	7	0.417	2.18309	-1.81203	3.56658
 343	41	6	-0.834	-12.1528	-5.72416	5.34542
 344	41	7	0.417	-11.6199	-5.56119	4.55795
 345	41	7	0.417	12.4536	-6.33909	5.02157
 346	42	6	-0.834	1.79457	-2.03417	-9.49623
 347	42	7	0.417	2.49418	-1.6846	-8.92016
 348	42	7	0.417	2.01251	-2.97823	-9.57066
 349	43	6	-0.834	-3.13923	-4.16405	-8.33045
 350	43	7	0.417	-3.24045	-3.24668	-7.99898
 351	43	7	0.417	-2.77361	-4.60506	-7.551
 352	44	6	-0.834	8.54341	-3.74354	10.9587
 353	44	7	0.417	7.66143	-4.11853	10.7564
 354	44	7	0.417	8.93432	-4.44114	11.4995
 355	45	6	-0.834	11.8172	-0.374874	4.65016
 356	45	7	0.417	11.9065	0.338727	4.01021
 357	45	7	0.417	-12.7439	-0.213308	5.25592
 358	46	6	-0.834	-8.96395	-4.14817	9.67551
 359	46	7	0.417	-9.29189	-5.04924	9.57404
 360	46	7	0.417	-8.62526	-4.13289	10.5771
 361	47	6	-0.834	-9.94928	11.2398	1.76248
 362	47	7	0.417	-10.7846	11.4925	2.1661
 363	47	7	0.417	-9.4238	10.9472	2.50294
 364	48	6	-0.834	-8.30039	4.96134	4.07513
 365	48	7	0.417	-9.07056	4.44874	4.37855
 366	48	7	0.417	-8.51854	5.15775	3.16213
 367	49	6	-0.834	0.493035	1.60339	11.9076
 368	49	7	0.417	1.16157	1.33098	-12.7423
 369	49	7	0.417	-0.350855	1.4449	12.3441
 370	50	6	-0.834	-10.9484	0.687849	5.56403
 371	50	7	0.417	-10.9483	0.98757	6.49097
 372	50	7	0.417	-10.2197	1.17838	5.17708
 373	51	6	-0.834	-10.5309	-1.22894	-11.2048
 374	51	7	0.417	-11.3866	-1.38624	-11.6212
 375	51	7	0.417	-10.2407	-2.13815	-11.0054
 376	52	6	-0.834	-8.44802	11.0586	11.9324
 377	52	7	0.417	-7.80184	11.0047	11.2169
 378	52	7	0.417	-9.04097	11.7459	11.6025
 379	53	6	-0.834	-11.3224	5.92618	-10.5146
 380	53	7	0.417	-10.6255	6.50701	-10.1827
 381	53	7	0.417	-10.8115	5.23758	-10.9563
 382	54	6	-0.834	5.85207	-12.4228	3.58164
 383	54	7	0.417	6.56022	12.2381	3.74829
 384	54	7	0.417	5.07623	12.3276	3.43029
 385	55	6	-0.834	-11.9753	-6.98176	7.68378
 386	55	7	0.417	-12.5503	-6.23854	7.91811
 387	55	7	0.417	-11.9187	-6.87649	6.71682
 388	56	6	-0.834	-9.6104	3.55656	-6.87144
 389	56	7	0.417	-9.46506	2.66264	-6.5284
 390	56	7	0.417	-10.0927	3.40442	-7.6902
 391	57	6	-0.834	0.825474	-6.20077	3.98953
 392	57	7	0.417	1.70736	-6.5638	3.89924
 393	57	7	0.417	0.693933	-6.11385	4.93581
 394	58	6	-0.834	-12.3712	-8.08975	-9.90718
 395	58	7	0.417	12.5517	-7.63619	-10.6833
 396	58	7	0.417	12.135	-8.29926	-9.40184
 397	59	6	-0.834	-7.34808	9.94141	-6.43137
 398	59	7	0.417	-7.74566	9.38291	-5.74834
 399	59	7	0.417	-7.27846	9.3113	-7.17483
 400	60	6	-0.834	2.97011	0.066405	12.238
 401	60	7	0.417	2.65403	0.220143	11.3392
 402	60	7	0.417	2.60508	-0.832932	-12.8511
 403	61	6	-0.834	-3.51629	9.65351	-7.98457
 404	61	7	0.417	-4.34398	10.1341	-8.10874
 405	61	7	0.417	-3.72556	8.7667	-8.30055
 406	62	6	-0.834	-5.89774	-6.34499	-11.4909
 407	62	7	0.417	-4.97889	-6.02742	-11.4692
 408	62	7	0.417	-5.80753	-7.26856	-11.7589
 409	63	6	-0.834	-12.3131	-11.9195	8.6416
 410	63	7	0.417	12.3882	-12.6341	8.41307
 411	63	7	0.417	12.4761	-11.1008	8.53243
 412	64	6	-0.834	11.1498	-0.539433	-0.804828
 413	64	7	0.417	10.8422	0.35297	-1.00275
 414	64	7	0.417	11.9688	-0.367122	-0.321075
 415	65	6	-0.834	-10.3694	-5.11127	-5.40651
 416	65	7	0.417	-9.88983	-5.2708	-4.59204
 417	65	7	0.417	-10.3925	-5.99474	-5.78752
 418	66	6	-0.834	-5.04685	-9.78161	-11.3914
 419	66	7	0.417	-5.72597	-10.3684	-11.778
 420	66	7	0.417	-4.56309	-10.3456	-10.7837
 421	67	6	-0.834	5.31556	8.06714	3.04073
 422	67	7	0.417	6.08538	7.50737	2.94818
 423	67	7	0.417	5.51133	8.6948	2.32077
 424	68	6	-0.834	-8.22889	6.95589	-4.84143
 425	68	7	0.417	-8.48166	6.71001	-5.75825
 426	68	7	0.417	-8.87602	7.63313	-4.61561
 427	69	6	-0.834	8.99746	1.43592	-10.0457
 428	69	7	0.417	8.93026	1.88255	-9.18542
 429	69	7	0.417	8.08814	1.14822	-10.2178
 430	70	6	-0.834	10.4767	-11.6028	4.76974
 431	70	7	0.417	11.234	-11.0975	5.10626
 432	70	7	0.417	9.71911	-11.0326	4.99642
 433	71	6	-0.834	-0.442377	-6.36305	-10.3276
 434	71	7	0.417	0.130022	-6.65725	-9.61504
 435	71	7	0.417	-0.603937	-5.44082	-10.1093
 436	72	6	-0.834	-6.89832	-0.0405406	-2.60582
 437	72	7	0.417	-6.23973	0.634734	-2.43373
 438	72	7	0.417	-6.58509	-0.488801	-3.39874
 439	73	6	-0.834	-9.97121	-2.65489	-2.61457
 440	73	7	0.417	-10.7914	-3.04036	-2.27896
 441	73	7	0.417	-9.37218	-2.66344	-1.85656
 442	74	6	-0.834	-3.46781	5.44606	-6.13283
 443	74	7	0.417	-4.21715	5.93822	-5.72486
 444	74	7	0.417	-3.86976	4.58967	-6.30504
 445	75	6	-0.834	-11.1405	10.0811	-0.396111
 446	75	7	0.417	-10.9965	10.8605	0.146658
 447	75	7	0.417	-11.7761	10.3229	-1.0665
 448	76	6	-0.834	10.4229	9.06379	2.76714
 449	76	7	0.417	11.377	9.1109	2.86098
 450	76	7	0.417	10.1272	9.59301	3.50936
 451	77	6	-0.834	-5.00708	7.82122	1.48435
 452	77	7	0.417	-5.63417	7.32522	2.00158
 453	77	7	0.417	-5.56165	8.21604	0.813078
 454	78	6	-0.834	-9.28364	-11.2218	-2.07227
 455	78	7	0.417	-9.4776	-11.7691	-2.84093
 456	78	7	0.417	-8.32488	-11.0351	-2.15412
 457	79	6	-0.834	11.2821	-5.48598	-3.63507
 458	79	7	0.417	10.8767	-4.75862	-3.12434
 459	79	7	0.417	12.2039	-5.47157	-3.34644
 460	80	6	-0.834	6.764	9.00686	1.2616
 461	80	7	0.417	6.74631	9.96199	1.12451
 462	80	7	0.417	7.55951	8.77086	0.784019
 463	81	6	-0.834	8.92436	-4.00715	3.95041
 464	81	7	0.417	9.71626	-3.7108	4.43818
 465	81	7	0.417	8.25015	-3.43621	4.31867
 466	82	6	-0.834	-8.10373	8.98692	-11.4921
 467	82	7	0.417	-8.10055	9.64279	-12.2257
 468	82	7	0.417	-7.98003	8.1556	-11.9648
 469	83	6	-0.834	5.93106	0.417041	11.7952
 470	83	7	0.417	5.97341	0.921418	12.6186
 471	83	7	0.417	5.15076	-0.13993	11.8934
 472	84	6	-0.834	-9.43092	12.2759	-6.72403
 473	84	7	0.417	-8.64278	-12.4862	-6.73075
 474	84	7	0.417	-9.08732	11.3803	-6.5453
 475	85	6	-0.834	-3.27678	-7.59488	11.2202
 476	85	7	0.417	-2.87921	-8.23041	11.8278
 477	85	7	0.417	-3.59119	-6.87735	11.7872
 478	86	6	-0.834	3.00912	1.87677	-11.2451
 479	86	7	0.417	3.03935	1.32401	-12.0588
 480	86	7	0.417	3.78379	2.4578	-11.2837
 481	87	6	-0.834	-12.4798	-3.96872	9.74716
 482	87	7	0.417	-11.6184	-3.61323	9.99077
 483	87	7	0.417	12.2766	-3.18942	9.55407
 484	88	6	-0.834	-5.60011	-4.54948	10.3339
 485	88	7	0.417	-4.68133	-4.79179	10.1611
 486	88	7	0.417	-6.02777	-4.74382	9.49197
 487	89	6	-0.834	-7.56868	1.3207	-0.366913
 488	89	7	0.417	-8.3564	1.7194	-0.776083
 489	89	7	0.417	-7.2188	0.738045	-1.06457
 490	90	6	-0.834	-10.4495	3.88341	5.65828
 491	90	7	0.417	-9.9267	3.08728	5.68829
 492	90	7	0.417	-10.6788	4.0346	6.58969
 493	91	6	-0.834	7.22189	-4.72452	7.2881
 494	91	7	0.417	7.95291	-4.08242	7.48257
 495	91	7	0.417	6.52464	-4.12144	7.00095
 496	92	6	-0.834	12.4161	-4.84644	-9.51813
 497	92	7	0.417	12.6423	-4.40856	-8.69539
 498	92	7	0.417	-12.0433	-5.2903	-9.74814
 499	93	6	-0.834	6.81955	-7.83367	-7.76726
 500	93	7	0.417	7.5878	-7.55049	-8.27975
 501	93	7	0.417	7.13749	-7.83084	-6.86541
 502	94	6	-0.834	-6.3622	8.01209	-8.64275
 503	94	7	0.417	-6.72696	7.88999	-9.51576
 504	94	7	0.417	-5.8887	7.19522	-8.47709
 505	95	6	-0.834	-8.93489	6.02812	11.6823
 506	95	7	0.417	-9.88356	5.90887	11.6071
 507	95	7	0.417	-8.69081	5.40067	12.3971
 508	96	6	-0.834	11.5011	-10.9302	-7.5438
 509	96	7	0.417	10.9966	-11.7424	-7.47273
 510	96	7	0.417	12.4177	-11.2289	-7.58949
 511	97	6	-0.834	-3.56245	9.45256	-11.5511
 512	97	7	0.417	-3.55761	9.94882	-10.7335
 513	97	7	0.417	-3.66075	8.53205	-11.2715
 514	98	6	-0.834	-3.167	-2.76877	12.2963
 515	98	7	0.417	-2.70545	-2.56382	-12.1829
 516	98	7	0.417	-2.49088	-2.69223	11.6172
 517	99	6	-0.834	10.6079	-7.07693	-5.8435
 518	99	7	0.417	10.862	-6.2194	-5.46111
 519	99	7	0.417	10.7103	-7.67501	-5.0954
 520	100	6	-0.834	-5.76498	-1.50171	5.19659
 521	100	7	0.417	-5.40855	-1.0775	5.98522
 522	100	7	0.417	-6.3423	-2.18596	5.55675
 523	101	6	-0.834	-10.4386	1.48432	-11.0915
 524	101	7	0.417	-10.369	1.50546	-10.1362
 525	101	7	0.417	-10.4217	0.520499	-11.2498
 526	102	6	-0.834	-11.1242	-10.0152	11.3492
 527	102	7	0.417	-11.9262	-9.8221	11.8523
 528	102	7	0.417	-11.4312	-9.8356	10.4475
 529	103	6	-0.834	3.94548	-11.5469	-0.117902
 530	103	7	0.417	3.42881	-11.6223	-0.919509
 531	103	7	0.417	3.87809	-10.6032	0.11652
 532	104	6	-0.834	10.9035	-6.0754	11.5548
 533	104	7	0.417	11.1766	-5.36246	10.9606
 534	104	7	0.417	10.7835	-5.6516	12.4255
 535	105	6	-0.834	-10.6515	3.4322	8.52684
 536	105	7	0.417	-10.8873	3.83628	9.36579
 537	105	7	0.417	-9.86447	2.91335	8.72045
 538	106	6	-0.834	-6.74609	-11.9751	-2.34426
 539	106	7	0.417	-7.05614	-12.6682	-1.74902
 540	106	7	0.417	-6.50387	12.785	-3.11889
 541	107	6	-0.834	11.3624	-3.12377	4.86501
 542	107	7	0.417	12.0592	-3.27614	5.50607
 543	107	7	0.417	11.3748	-2.15572	4.69744
 544	108	6	-0.834	-6.64033	1.0304	4.75505
 545	108	7	0.417	-5.86157	1.41454	4.3235
 546	108	7	0.417	-6.44604	0.0760656	4.78026
 547	109	6	-0.834	10.8151	-6.6281	4.44163
 548	109	7	0.417	10.0349	-6.70498	5.03492
 549	109	7	0.417	10.5131	-5.96407	3.81722
 550	110	6	-0.834	-3.68211	6.19625	7.00158
 551	110	7	0.417	-2.7268	6.07271	7.07904
 552	110	7	0.417	-3.9691	6.20407	7.91275
 553	111	6	-0.834	2.14652	3.92713	-2.11703
 554	111	7	0.417	2.88024	4.47084	-1.848
 555	111	7	0.417	1.64903	3.78537	-1.28711
 556	112	6	-0.834	9.69243	0.64836	9.45562
 557	112	7	0.417	8.79619	0.69314	9.78808
 558	112	7	0.417	10.1414	1.44925	9.81509
 559	113	6	-0.834	0.172176	0.327515	-9.74547
 560	113	7	0.417	0.887224	-0.261328	-10.0311
 561	113	7	0.417	0.219792	0.233728	-8.78714
 562	114	6	-0.834	7.69386	2.03181	-7.47658
 563	114	7	0.417	8.35085	1.75877	-6.81942
 564	114	7	0.417	6.85156	1.84033	-7.03199
 565	115	6	-0.834	1.94672	1.00651	1.20089
 566	115	7	0.417	2.06167	0.256059	1.80472
 567	115	7	0.417	1.47564	0.603465	0.461086
 568	116	6	-0.834	-12.1331	9.97698	3.14698
 569	116	7	0.417	-12.83	10.5839	2.87407
 570	116	7	0.417	-11.4001	10.1437	2.54732
 571	117	6	-0.834	-1.61734	-9.13768	9.34525
 572	117	7	0.417	-2.34285	-9.33382	8.7338
 573	117	7	0.417	-2.06284	-8.64137	10.0511
 574	118	6	-0.834	-2.10632	1.37315	-10.9454
 575	118	7	0.417	-2.67785	0.601954	-10.9828
 576	118	7	0.417	-1.32928	1.08424	-10.4389
 577	119	6	-0.834	-0.244852	8.3208	-7.50817
 578	119	7	0.417	-0.95664	7.97619	-6.92372
 579	119	7	0.417	-0.669906	9.06062	-7.9548
 580	120	6	-0.834	-10.2883	8.4143	-6.36611
 581	120	7	0.417	-10.053	7.55847	-6.78198
 582	120	7	0.417	-10.8992	8.73025	-7.03164
 583	121	6	-0.834	2.44105	-3.81634	9.57624
 584	121	7	0.417	2.19836	-4.65013	9.16116
 585	121	7	0.417	1.99458	-3.85841	10.4314
 586	122	6	-0.834	9.40418	6.50818	10.5563
 587	122	7	0.417	9.08065	5.65378	10.2837
 588	122	7	0.417	8.69704	7.11803	10.3436
 589	123	6	-0.834	9.22977	-3.36861	-3.10442
 590	123	7	0.417	9.03686	-2.93177	-2.26675
 591	123	7	0.417	9.02002	-2.70763	-3.77638
 592	124	6	-0.834	-0.260562	-4.48539	6.97194
 593	124	7	0.417	-0.259903	-5.44635	6.96748
 594	124	7	0.417	0.296735	-4.25815	7.72266
 595	125	6	-0.834	10.3443	11.6433	-9.28064
 596	125	7	0.417	11.0374	11.5736	-9.9493
 597	125	7	0.417	10.4136	10.8386	-8.74955
 598	126	6	-0.834	-4.19052	-2.75008	3.03832
 599	126	7	0.417	-4.6416	-1.91335	3.21252
 600	126	7	0.417	-3.77125	-2.95142	3.87963
 601	127	6	-0.834	-10.432	0.381921	8.29005
 602	127	7	0.417	-10.6664	0.408207	9.22615
 603	127	7	0.417	-9.53234	0.0474064	8.26603
 604	128	6	-0.834	-10.1126	-6.81928	-10.8733
 605	128	7	0.417	-9.36524	-7.28478	-10.4627
 606	128	7	0.417	-10.8751	-7.28875	-10.4855
 607	129	6	-0.834	11.2305	-8.10136	-12.1698
 608	129	7	0.417	10.3225	-8.36915	-12.3762
 609	129	7	0.417	11.4579	-7.55867	-12.9497
 610	130	6	-0.834	12.1779	-9.03631	9.2275
 611	130	7	0.417	-12.5168	-8.40525	8.78014
 612	130	7	0.417	11.3514	-8.54509	9.26908
 613	131	6	-0.834	5.22027	-2.57877	7.76726
 614	131	7	0.417	5.44583	-2.68409	8.69953
 615	131	7	0.417	4.34951	-2.14351	7.79165
 616	132	6	-0.834	-7.6816	5.18937	-9.6475
 617	132	7	0.417	-6.75696	4.98736	-9.89284
 618	132	7	0.417	-8.17369	4.73019	-10.3413
 619	133	6	-0.834	-7.21207	-0.53089	-11.7516
 620	133	7	0.417	-7.06933	-1.29439	-12.3311
 621	133	7	0.417	-8.1682	-0.433104	-11.8568
 622	134	6	-0.834	-6.43976	7.9808	6.50223
 623	134	7	0.417	-6.60712	8.1787	5.57723
 624	134	7	0.417	-5.88691	7.20372	6.44994
 625	135	6	-0.834	-0.63227	6.35268	-3.45147
 626	135	7	0.417	-0.968132	6.18993	-2.57563
 627	135	7	0.417	-0.114965	5.56421	-3.64934
 628	136	6	-0.834	-5.67621	10.7066	11.1348
 629	136	7	0.417	-5.07896	10.3221	11.7877
 630	136	7	0.417	-5.73638	10.0259	10.441
 631	137	6	-0.834	-4.55202	-10.1675	10.6981
 632	137	7	0.417	-4.55776	-9.56258	11.4465
 633	137	7	0.417	-5.12587	-10.904	10.9861
 634	138	6	-0.834	6.14448	-4.92273	9.80799
 635	138	7	0.417	5.75031	-5.79404	9.68533
 636	138	7	0.417	6.37814	-4.67094	8.88845
 637	139	6	-0.834	8.99472	-7.62449	9.34099
 638	139	7	0.417	9.30312	-6.98618	9.99896
 639	139	7	0.417	8.51671	-8.27818	9.86056
 640	140	6	-0.834	-1.70544	7.47137	-5.54769
 641	140	7	0.417	-2.24741	6.70837	-5.83031
 642	140	7	0.417	-1.36372	7.16793	-4.67377
 643	141	6	-0.834	-7.81155	-8.43359	-10.0555
 644	141	7	0.417	-7.05813	-9.01306	-9.86893
 645	141	7	0.417	-7.62194	-8.15576	-10.9533
 646	142	6	-0.834	10.7138	2.51488	11.0085
 647	142	7	0.417	10.2844	2.71231	11.8567
 648	142	7	0.417	11.6091	2.32435	11.2915
 649	143	6	-0.834	2.06365	10.2711	3.41959
 650	143	7	0.417	1.47308	10.9299	3.05331
 651	143	7	0.417	2.91974	10.493	3.01657
 652	144	6	-0.834	5.2291	1.01868	-6.80037
 653	144	7	0.417	5.11318	1.02911	-5.84339
 654	144	7	0.417	4.32171	0.992719	-7.13828
 655	145	6	-0.834	0.72755	-10.117	8.03117
 656	145	7	0.417	-0.051132	-9.88916	8.58354
 657	145	7	0.417	0.741257	-11.0805	8.07478
 658	146	6	-0.834	-5.28697	-2.87759	0.374872
 659	146	7	0.417	-4.88955	-3.00135	1.25557
 660	146	7	0.417	-4.97261	-3.64307	-0.106267
 661	147	6	-0.834	5.67094	-5.36157	-8.40843
 662	147	7	0.417	5.90197	-6.00244	-7.71455
 663	147	7	0.417	6.49124	-4.96081	-8.67309
 664	148	6	-0.834	3.52149	0.332013	-8.96325
 665	148	7	0.417	3.07629	0.730701	-9.73617
 666	148	7	0.417	4.46189	0.459487	-9.1644
 667	149	6	-0.834	-7.98442	2.62413	8.99248
 668	149	7	0.417	-7.26429	1.99947	9.13244
 669	149	7	0.417	-7.90372	2.83662	8.04616
 670	150	6	-0.834	-5.68469	6.71084	-5.48113
 671	150	7	0.417	-6.64324	6.79114	-5.2937
 672	150	7	0.417	-5.2952	6.8545	-4.60664