pySIMM System Object

114 atoms
113 bonds
208 angles
327 dihedrals
0 impropers

5 atom types
5 bond types
8 angle types
7 dihedral types

-7.931728 7.931728 xlo xhi
-7.931728 7.931728 ylo yhi
-7.931728 7.931728 zlo zhi

Masses

   1	1.008	# h1
   2	12.01	# c3
   3	1.008	# ho
   4	1.008	# hc
   5	16.0	# oh

Pair Coeffs

   1	0.0208	2.4219972551363265	# h1
   2	0.1078	3.397709531243626	# c3
   3	0.0047	0.5379246460131368	# ho
   4	0.0208	2.600176998764394	# hc
   5	0.093	3.242871334030835	# oh

Bond Coeffs

   1	375.92	1.097	# c3,h1
   2	563.51	0.973	# ho,oh
   3	232.52	1.538	# c3,c3
   4	375.92	1.097	# c3,hc
   5	293.4	1.423	# c3,oh

Angle Coeffs

   1	49.027	107.26	# c3,oh,ho
   2	62.54	110.26	# h1,c3,oh
   3	84.642	110.19	# c3,c3,oh
   4	46.868	109.56	# c3,c3,h1
   5	38.802	108.46	# h1,c3,h1
   6	38.96	107.58	# hc,c3,hc
   7	46.816	109.8	# c3,c3,hc
   8	64.888	111.51	# c3,c3,c3

Dihedral Coeffs

   1	2	0.18	3	0	0.51	1	0	# hc,c3,c3,oh
   2	1	0.15555555555555556	3	0	# X,c3,c3,X
   3	1	0.113	3	0	# ho,oh,c3,h1
   4	1	0.0	3	0	# ho,oh,c3,c3
   5	1	0.21	3	0	# oh,c3,c3,c3
   6	2	0.08	3	0	0.08	3	0	# hc,c3,c3,c3
   7	3	0.13	3	0	0.29	2	180	0.11	1	0	# c3,c3,c3,c3

Atoms

   1	1	5	-0.441186	-0.800666	5.69982	1.70573
   2	1	2	0.00861157	-0.482728	7.07613	1.86998
   3	1	2	-0.121293	1.04188	7.24906	2.09754
   4	1	1	0.0767721	-0.782392	7.63687	0.974471
   5	1	1	0.0767721	-1.04731	7.49501	2.71305
   6	1	4	0.0638532	1.26584	8.323605999999998	2.08961
   7	1	4	0.0638532	1.58392	6.81584	1.24709
   8	1	3	0.272617	-0.456019	5.41826	0.843127
   9	1	5	-0.41951	2.97553	6.92931	3.50885
  10	1	2	-0.017451	1.5841	6.63465	3.42099
  11	1	2	-0.103126	0.830164	7.21671	4.64522
  12	1	1	0.119187	1.44042	5.54374	3.39818
  13	1	4	0.0694559	-0.142708	6.71573	4.69558
  14	1	4	0.0694559	0.631596	8.278165999999999	4.45037
  15	1	3	0.281988	3.07226	7.896	3.55274
  16	1	5	-0.41951	1.42081	5.76705	6.52098
  17	1	2	-0.017451	1.54229	7.09359	6.02226
  18	1	2	-0.103126	1.02064	8.120066	7.0757
  19	1	1	0.119187	2.60788	7.32409	5.88487
  20	1	4	0.0694559	1.65433	8.021776	7.967555999999999
  21	1	4	0.0694559	1.19841	9.136536	6.70085
  22	1	3	0.281988	1.2307	5.18506	5.76209
  23	1	5	-0.41951	-1.3439	8.124066	6.40657
  24	1	2	-0.017451	-0.470032	7.995665999999999	7.52356
  25	1	2	-0.103126	-0.814689	9.111816	8.559116
  26	1	1	0.119187	-0.592472	7.00331	7.981535999999999
  27	1	4	0.0694559	-0.013877	9.152766	9.307535999999999
  28	1	4	0.0694559	-0.801097	10.089666	8.059016
  29	1	3	0.281988	-0.778996	8.052485999999998	5.61436
  30	1	5	-0.41951	-3.26054	9.124165999999999	8.432246
  31	1	2	-0.017451	-2.16069	8.949496	9.325085999999999
  32	1	2	-0.103126	-2.25251	7.573	10.038136
  33	1	1	0.119187	-2.20066	9.732745999999999	10.095436
  34	1	4	0.0694559	-1.2928	7.35806	10.525786
  35	1	4	0.0694559	-2.40319	6.78984	9.286666
  36	1	3	0.281988	-2.90319	8.997215999999998	7.52715
  37	1	5	-0.41951	-4.63123	7.77767	10.505816
  38	1	2	-0.017451	-3.37083	7.47764	11.104095999999998
  39	1	2	-0.103126	-3.38564	6.07021	11.772126
  40	1	1	0.119187	-3.16172	8.220486	11.886845999999998
  41	1	4	0.0694559	-3.35515	5.27962	11.010216
  42	1	4	0.0694559	-2.46476	5.96277	12.359606
  43	1	3	0.281988	-4.44026	8.335335999999998	9.730056
  44	1	5	-0.41951	-5.74745	5.58126	11.860606
  45	1	2	-0.017451	-4.62024	5.85917	12.686395999999998
  46	1	2	-0.103126	-4.43494	4.71629	13.716526
  47	1	1	0.119187	-4.7879	6.79154	13.243915999999999
  48	1	4	0.0694559	-4.45208	3.74713	13.201526
  49	1	4	0.0694559	-3.44343	4.80985	14.176336
  50	1	3	0.281988	-5.66189	6.19201	11.094746
  51	1	5	-0.41951	-6.8143	4.72615	14.307416
  52	1	2	-0.017451	-5.49599	4.7467	14.853826
  53	1	2	-0.103126	-5.34677	3.5518	15.837486799999999
  54	1	1	0.119187	-5.37319	5.68387	15.414631
  55	1	4	0.0694559	-6.26022	3.50544	16.444606
  56	1	4	0.0694559	-5.30837	2.61238	15.270843999999999
  57	1	3	0.281988	-6.71437	4.91701	13.354185999999999
  58	1	5	-0.41951	-4.05025	4.94898	17.348306
  59	1	2	-0.017451	-4.12315	3.64093	16.797947999999998
  60	1	2	-0.103126	-4.23286	2.57281	17.935066
  61	1	1	0.119187	-3.20665	3.4507	16.220619
  62	1	4	0.0694559	-5.27723	2.45314	18.249816
  63	1	4	0.0694559	-3.95174	1.61379	17.480256
  64	1	3	0.281988	-4.48721	4.91932	18.218156
  65	1	5	-0.41951	-3.05439	1.52265	19.753946
  66	1	2	-0.017451	-3.34816	2.80415	19.203846
  67	1	2	-0.103126	-4.01514	3.67729	20.323625999999997
  68	1	1	0.119187	-2.41548	3.29329	18.886385999999998
  69	1	4	0.0694559	-4.84594	3.12219	20.780386
  70	1	4	0.0694559	-4.46789	4.57193	19.882255999999998
  71	1	3	0.281988	-3.15757	0.865768	19.052626
  72	1	5	-0.41951	-1.92563	4.83273	20.848186
  73	1	2	-0.017451	-3.03378	4.16105	21.443856
  74	1	2	-0.103126	-2.4969	3.03538	22.358916
  75	1	1	0.119187	-3.5853	4.86114	22.088726
  76	1	4	0.0694559	-3.32985	2.42939	22.738366
  77	1	4	0.0694559	-1.85873	2.36795	21.769076
  78	1	3	0.281988	-2.07211	5.78506	20.950286
  79	1	5	-0.41951	-2.50405	4.29759	24.438281999999997
  80	1	2	-0.017451	-1.66184	3.56961	23.549346
  81	1	2	-0.103126	-0.906882	2.40391	24.257022
  82	1	1	0.119187	-0.895241	4.2506	23.152336
  83	1	4	0.0694559	-1.25848	1.45542	23.835901999999997
  84	1	4	0.0694559	0.148172	2.46666	23.962842
  85	1	3	0.281988	-1.98702	4.40938	25.257821999999997
  86	1	5	-0.41951	-0.680627	3.55438	26.419142
  87	1	2	-0.017451	-0.99364	2.2964	25.809312
  88	1	2	-0.103126	0.00362351	1.22424	26.343591999999997
  89	1	1	0.119187	-2.01966	2.00649	26.079452
  90	1	4	0.0694559	0.173506	1.42876	27.407331999999997
  91	1	4	0.0694559	0.973087	1.36421	25.849182
  92	1	3	0.281988	0.0297624	3.40303	27.060941999999997
  93	1	5	-0.41951	-0.543231	-0.702861	24.876162
  94	1	2	-0.017451	-0.447984	-0.2693	26.228001999999996
  95	1	2	-0.103126	0.519268	-1.22235	26.995942
  96	1	1	0.119187	-1.43743	-0.344594	26.702992
  97	1	4	0.0694559	0.119003	-2.24591	26.973782
  98	1	4	0.0694559	0.500112	-0.911247	28.046861999999997
  99	1	3	0.281988	-1.1281	-1.48714	24.848822
 100	1	5	-0.41951	2.15278	-2.02444	25.334522
 101	1	2	-0.017451	2.01422	-1.25001	26.520981999999997
 102	1	2	-0.103126	2.97845	-1.75706	27.644161999999998
 103	1	1	0.119187	2.328	-0.221686	26.295132
 104	1	4	0.0694559	2.96623	-1.02027	28.459142
 105	1	4	0.0694559	4.00457	-1.71868	27.255912
 106	1	3	0.281988	1.38321	-1.81649	24.766882
 107	1	5	-0.422467	1.54987	-3.22124	29.065412
 108	1	2	-0.0328361	2.74321	-3.17368	28.280262
 109	1	2	-0.043492	2.7637	-4.36885	27.292102
 110	1	1	0.112764	3.59587	-3.33635	28.954492
 111	1	4	0.0348444	3.21049	-4.10231	26.328471999999998
 112	1	4	0.0348444	3.37663	-5.17869	27.706682
 113	1	4	0.0348444	1.75699	-4.77031	27.112171999999997
 114	1	3	0.281498	1.20965	-2.30784	29.149642

Velocities

   1	0.00052228	-0.00042287	-0.000278123
   2	9.64942e-05	-0.000508368	-0.000276985
   3	0.000179731	5.35219e-05	-0.000357638
   4	0.000729975	-0.000407243	0.000178014
   5	0.000586269	0.000177784	-0.000487298
   6	3.58035e-05	1.72823e-05	-0.000662106
   7	-6.62074e-05	-0.000210952	-0.000128462
   8	-0.00109297	4.97188e-05	0.00319024
   9	0.000173975	6.41074e-05	-0.000535421
  10	-0.000273892	0.00046098	-0.000110477
  11	0.000544905	0.000652589	-0.000521953
  12	-0.000340296	0.000484072	-1.87993e-05
  13	-0.000666781	0.00138607	-0.000143296
  14	0.00137428	0.000791677	0.000340969
  15	0.000321096	-0.0011336	-0.000763814
  16	-0.000903281	-0.00026026	0.000283287
  17	-0.000145327	0.000333645	0.000497697
  18	-0.000653666	0.000146539	-3.36528e-05
  19	0.000307721	-0.00083746	8.62716e-05
  20	0.000295733	0.000453131	-6.2644e-05
  21	0.00011408	8.06139e-05	-0.000451144
  22	0.000312983	-0.000647764	-0.000456437
  23	-0.000963149	0.000845208	0.00093324
  24	0.000178469	9.38334e-05	-0.000510491
  25	0.000506114	0.000202443	0.000967618
  26	-0.000278716	0.000290802	0.000444588
  27	-0.000563201	-0.000827133	-0.000547632
  28	0.000658425	-0.000100597	0.000510134
  29	3.85482e-05	-0.00080007	-0.0012028
  30	0.000807103	0.000388827	0.000362884
  31	1.70071e-05	-0.000101861	0.000124201
  32	0.000102978	-6.04072e-05	-0.000110562
  33	0.000677917	-0.000537348	-0.000511018
  34	-0.000615042	-0.000147846	-0.000159764
  35	-0.0002503	-0.00020253	6.50659e-05
  36	0.00213284	-0.00330273	-0.00395691
  37	0.000594624	0.000519847	-0.00152464
  38	-0.000188881	-6.89855e-05	-0.000165259
  39	-0.000531193	0.000555595	0.000361964
  40	-0.000212969	0.000826145	0.000467313
  41	-0.000461709	-0.000338749	-0.000335194
  42	-0.000111299	-1.4245e-05	0.000380203
  43	-0.000700617	-0.00509047	0.00485293
  44	-0.000629941	-0.000224427	0.000784412
  45	3.84266e-05	0.000271502	0.000340741
  46	0.00026831	-0.000324132	-8.49512e-05
  47	-0.000384704	0.000536982	0.000555826
  48	-1.00642e-05	-0.000102374	-2.99986e-05
  49	0.000453147	-0.000288524	0.000404224
  50	-5.59088e-05	0.00321199	-0.00366493
  51	0.0013048	-0.00116753	-0.000976296
  52	-0.0010572	-0.000454346	0.000272476
  53	-0.000343208	0.000259309	7.89368e-05
  54	0.000366882	0.000177929	-0.000662958
  55	-0.0004714	0.000588708	0.000292217
  56	-0.00013084	-4.1795e-05	0.00103585
  57	-0.000122711	0.000471688	0.0031284
  58	-0.000108737	0.000160103	0.000288376
  59	-3.50618e-05	0.00103656	0.00117346
  60	-0.000657103	5.98181e-05	0.00011883
  61	-0.000420728	-0.00021178	0.000454827
  62	-0.000564475	0.00116116	0.00107696
  63	-0.00160958	0.000283118	-0.00019796
  64	-0.000298598	0.000212679	0.00196345
  65	6.33042e-05	-0.0016228	-0.00147447
  66	0.000647719	-0.000453849	-0.000426023
  67	0.00121718	-7.2392e-05	-4.11986e-05
  68	0.000328328	-0.00108167	-0.000366679
  69	-0.000307705	-0.000607369	-0.000231949
  70	6.76132e-05	-0.000371542	-0.000912799
  71	0.00122546	0.00401076	0.00429281
  72	-0.000522366	0.00186127	3.21787e-05
  73	-0.000429836	0.000456905	-0.00141008
  74	0.000381972	-0.000253351	1.37445e-05
  75	-0.000523266	0.000300145	0.000436449
  76	0.000316948	0.00053274	-0.000562643
  77	-0.000234231	0.000460809	-0.000658063
  78	4.69092e-05	-0.00427013	9.06316e-05
  79	0.000135353	-0.00143304	0.00044217
  80	-0.00110004	0.000906082	3.70508e-06
  81	0.000886871	-0.000436601	0.00118601
  82	0.000804369	0.00060747	-0.000765821
  83	-0.000994977	-0.000320883	-0.00104872
  84	-0.000694721	0.000343341	-0.000951439
  85	-0.00246934	-0.00277954	-0.00205028
  86	0.00121386	-0.000426548	0.000432451
  87	-0.000131537	8.22364e-05	-0.00146063
  88	-8.07613e-05	0.000268926	0.00120741
  89	-0.000710923	-0.00018585	0.000870336
  90	-7.38024e-05	-0.00109584	-0.000508614
  91	0.00133249	0.000439649	-0.000829916
  92	-0.00280743	0.00117718	-0.0040514
  93	0.00114767	0.00121369	-0.000976198
  94	0.000916689	-0.000860257	0.000788454
  95	0.00114882	0.000464265	0.000983576
  96	0.000804164	-0.000219014	-0.000844418
  97	-0.00102053	0.000944834	0.000704478
  98	-0.00086649	-0.00118746	-0.00350365
  99	-0.00278477	-0.00291347	-3.47357e-05
 100	-0.000209862	-0.000540489	-6.8094e-05
 101	-0.00357335	-2.74037e-05	0.00313699
 102	-0.00020903	-0.00105405	-0.00068331
 103	0.00136965	0.00189719	-0.000169625
 104	0.000185089	0.00152813	0.00147383
 105	0.000971567	-0.0013158	-0.0022015
 106	-0.00336975	0.00302108	-0.00180196
 107	0.000957764	-0.000847442	-0.000259311
 108	6.71773e-05	-0.00088381	-7.76655e-05
 109	0.000930783	0.000839976	0.00018289
 110	0.00102477	0.000811748	0.00109317
 111	0.00249953	0.000156461	-0.000406817
 112	-0.00119535	-0.00259521	0.00121197
 113	-0.00374281	0.00141183	-0.0026396
 114	-0.00176129	0.00748596	0.000163332

Bonds

   1	5	1	2
   2	2	1	8
   3	3	2	3
   4	1	2	4
   5	1	2	5
   6	4	3	6
   7	4	3	7
   8	5	9	10
   9	2	9	15
  10	3	10	11
  11	1	10	12
  12	4	11	13
  13	4	11	14
  14	3	3	10
  15	5	16	17
  16	2	16	22
  17	3	17	18
  18	1	17	19
  19	4	18	20
  20	4	18	21
  21	3	11	17
  22	5	23	24
  23	2	23	29
  24	3	24	25
  25	1	24	26
  26	4	25	27
  27	4	25	28
  28	3	18	24
  29	5	30	31
  30	2	30	36
  31	3	31	32
  32	1	31	33
  33	4	32	34
  34	4	32	35
  35	3	25	31
  36	5	37	38
  37	2	37	43
  38	3	38	39
  39	1	38	40
  40	4	39	41
  41	4	39	42
  42	3	32	38
  43	5	44	45
  44	2	44	50
  45	3	45	46
  46	1	45	47
  47	4	46	48
  48	4	46	49
  49	3	39	45
  50	5	51	52
  51	2	51	57
  52	3	52	53
  53	1	52	54
  54	4	53	55
  55	4	53	56
  56	3	46	52
  57	5	58	59
  58	2	58	64
  59	3	59	60
  60	1	59	61
  61	4	60	62
  62	4	60	63
  63	3	53	59
  64	5	65	66
  65	2	65	71
  66	3	66	67
  67	1	66	68
  68	4	67	69
  69	4	67	70
  70	3	60	66
  71	5	72	73
  72	2	72	78
  73	3	73	74
  74	1	73	75
  75	4	74	76
  76	4	74	77
  77	3	67	73
  78	5	79	80
  79	2	79	85
  80	3	80	81
  81	1	80	82
  82	4	81	83
  83	4	81	84
  84	3	74	80
  85	5	86	87
  86	2	86	92
  87	3	87	88
  88	1	87	89
  89	4	88	90
  90	4	88	91
  91	3	81	87
  92	5	93	94
  93	2	93	99
  94	3	94	95
  95	1	94	96
  96	4	95	97
  97	4	95	98
  98	3	88	94
  99	5	100	101
 100	2	100	106
 101	3	101	102
 102	1	101	103
 103	4	102	104
 104	4	102	105
 105	3	95	101
 106	5	107	108
 107	2	107	114
 108	3	108	109
 109	1	108	110
 110	4	109	111
 111	4	109	112
 112	4	109	113
 113	3	102	108

Angles

   1	1	2	1	8
   2	3	1	2	3
   3	2	1	2	4
   4	2	1	2	5
   5	4	3	2	4
   6	4	3	2	5
   7	5	4	2	5
   8	7	2	3	6
   9	7	2	3	7
  10	6	6	3	7
  11	1	10	9	15
  12	3	9	10	11
  13	2	9	10	12
  14	4	11	10	12
  15	7	10	11	13
  16	7	10	11	14
  17	6	13	11	14
  18	8	2	3	10
  19	7	6	3	10
  20	7	7	3	10
  21	3	3	10	9
  22	8	3	10	11
  23	4	3	10	12
  24	1	17	16	22
  25	3	16	17	18
  26	2	16	17	19
  27	4	18	17	19
  28	7	17	18	20
  29	7	17	18	21
  30	6	20	18	21
  31	8	10	11	17
  32	7	13	11	17
  33	7	14	11	17
  34	3	11	17	16
  35	8	11	17	18
  36	4	11	17	19
  37	1	24	23	29
  38	3	23	24	25
  39	2	23	24	26
  40	4	25	24	26
  41	7	24	25	27
  42	7	24	25	28
  43	6	27	25	28
  44	8	17	18	24
  45	7	20	18	24
  46	7	21	18	24
  47	3	18	24	23
  48	8	18	24	25
  49	4	18	24	26
  50	1	31	30	36
  51	3	30	31	32
  52	2	30	31	33
  53	4	32	31	33
  54	7	31	32	34
  55	7	31	32	35
  56	6	34	32	35
  57	8	24	25	31
  58	7	27	25	31
  59	7	28	25	31
  60	3	25	31	30
  61	8	25	31	32
  62	4	25	31	33
  63	1	38	37	43
  64	3	37	38	39
  65	2	37	38	40
  66	4	39	38	40
  67	7	38	39	41
  68	7	38	39	42
  69	6	41	39	42
  70	8	31	32	38
  71	7	34	32	38
  72	7	35	32	38
  73	3	32	38	37
  74	8	32	38	39
  75	4	32	38	40
  76	1	45	44	50
  77	3	44	45	46
  78	2	44	45	47
  79	4	46	45	47
  80	7	45	46	48
  81	7	45	46	49
  82	6	48	46	49
  83	8	38	39	45
  84	7	41	39	45
  85	7	42	39	45
  86	3	39	45	44
  87	8	39	45	46
  88	4	39	45	47
  89	1	52	51	57
  90	3	51	52	53
  91	2	51	52	54
  92	4	53	52	54
  93	7	52	53	55
  94	7	52	53	56
  95	6	55	53	56
  96	8	45	46	52
  97	7	48	46	52
  98	7	49	46	52
  99	3	46	52	51
 100	8	46	52	53
 101	4	46	52	54
 102	1	59	58	64
 103	3	58	59	60
 104	2	58	59	61
 105	4	60	59	61
 106	7	59	60	62
 107	7	59	60	63
 108	6	62	60	63
 109	8	52	53	59
 110	7	55	53	59
 111	7	56	53	59
 112	3	53	59	58
 113	8	53	59	60
 114	4	53	59	61
 115	1	66	65	71
 116	3	65	66	67
 117	2	65	66	68
 118	4	67	66	68
 119	7	66	67	69
 120	7	66	67	70
 121	6	69	67	70
 122	8	59	60	66
 123	7	62	60	66
 124	7	63	60	66
 125	3	60	66	65
 126	8	60	66	67
 127	4	60	66	68
 128	1	73	72	78
 129	3	72	73	74
 130	2	72	73	75
 131	4	74	73	75
 132	7	73	74	76
 133	7	73	74	77
 134	6	76	74	77
 135	8	66	67	73
 136	7	69	67	73
 137	7	70	67	73
 138	3	67	73	72
 139	8	67	73	74
 140	4	67	73	75
 141	1	80	79	85
 142	3	79	80	81
 143	2	79	80	82
 144	4	81	80	82
 145	7	80	81	83
 146	7	80	81	84
 147	6	83	81	84
 148	8	73	74	80
 149	7	76	74	80
 150	7	77	74	80
 151	3	74	80	79
 152	8	74	80	81
 153	4	74	80	82
 154	1	87	86	92
 155	3	86	87	88
 156	2	86	87	89
 157	4	88	87	89
 158	7	87	88	90
 159	7	87	88	91
 160	6	90	88	91
 161	8	80	81	87
 162	7	83	81	87
 163	7	84	81	87
 164	3	81	87	86
 165	8	81	87	88
 166	4	81	87	89
 167	1	94	93	99
 168	3	93	94	95
 169	2	93	94	96
 170	4	95	94	96
 171	7	94	95	97
 172	7	94	95	98
 173	6	97	95	98
 174	8	87	88	94
 175	7	90	88	94
 176	7	91	88	94
 177	3	88	94	93
 178	8	88	94	95
 179	4	88	94	96
 180	1	101	100	106
 181	3	100	101	102
 182	2	100	101	103
 183	4	102	101	103
 184	7	101	102	104
 185	7	101	102	105
 186	6	104	102	105
 187	8	94	95	101
 188	7	97	95	101
 189	7	98	95	101
 190	3	95	101	100
 191	8	95	101	102
 192	4	95	101	103
 193	1	108	107	114
 194	3	107	108	109
 195	2	107	108	110
 196	4	109	108	110
 197	7	108	109	111
 198	7	108	109	112
 199	7	108	109	113
 200	6	111	109	112
 201	6	111	109	113
 202	6	112	109	113
 203	8	101	102	108
 204	7	104	102	108
 205	7	105	102	108
 206	3	102	108	107
 207	8	102	108	109
 208	4	102	108	110

Dihedrals

   1	4	8	1	2	3
   2	3	8	1	2	4
   3	3	8	1	2	5
   4	1	1	2	3	6
   5	1	1	2	3	7
   6	2	4	2	3	6
   7	2	4	2	3	7
   8	2	5	2	3	6
   9	2	5	2	3	7
  10	4	15	9	10	11
  11	3	15	9	10	12
  12	1	9	10	11	13
  13	1	9	10	11	14
  14	2	12	10	11	13
  15	2	12	10	11	14
  16	5	1	2	3	10
  17	2	4	2	3	10
  18	2	5	2	3	10
  19	4	3	10	9	15
  20	6	3	10	11	13
  21	6	3	10	11	14
  22	5	2	3	10	9
  23	7	2	3	10	11
  24	2	2	3	10	12
  25	1	6	3	10	9
  26	6	6	3	10	11
  27	2	6	3	10	12
  28	1	7	3	10	9
  29	6	7	3	10	11
  30	2	7	3	10	12
  31	4	22	16	17	18
  32	3	22	16	17	19
  33	1	16	17	18	20
  34	1	16	17	18	21
  35	2	19	17	18	20
  36	2	19	17	18	21
  37	5	9	10	11	17
  38	2	12	10	11	17
  39	7	3	10	11	17
  40	4	11	17	16	22
  41	6	11	17	18	20
  42	6	11	17	18	21
  43	5	10	11	17	16
  44	7	10	11	17	18
  45	2	10	11	17	19
  46	1	13	11	17	16
  47	6	13	11	17	18
  48	2	13	11	17	19
  49	1	14	11	17	16
  50	6	14	11	17	18
  51	2	14	11	17	19
  52	4	29	23	24	25
  53	3	29	23	24	26
  54	1	23	24	25	27
  55	1	23	24	25	28
  56	2	26	24	25	27
  57	2	26	24	25	28
  58	5	16	17	18	24
  59	2	19	17	18	24
  60	7	11	17	18	24
  61	4	18	24	23	29
  62	6	18	24	25	27
  63	6	18	24	25	28
  64	5	17	18	24	23
  65	7	17	18	24	25
  66	2	17	18	24	26
  67	1	20	18	24	23
  68	6	20	18	24	25
  69	2	20	18	24	26
  70	1	21	18	24	23
  71	6	21	18	24	25
  72	2	21	18	24	26
  73	4	36	30	31	32
  74	3	36	30	31	33
  75	1	30	31	32	34
  76	1	30	31	32	35
  77	2	33	31	32	34
  78	2	33	31	32	35
  79	5	23	24	25	31
  80	2	26	24	25	31
  81	7	18	24	25	31
  82	4	25	31	30	36
  83	6	25	31	32	34
  84	6	25	31	32	35
  85	5	24	25	31	30
  86	7	24	25	31	32
  87	2	24	25	31	33
  88	1	27	25	31	30
  89	6	27	25	31	32
  90	2	27	25	31	33
  91	1	28	25	31	30
  92	6	28	25	31	32
  93	2	28	25	31	33
  94	4	43	37	38	39
  95	3	43	37	38	40
  96	1	37	38	39	41
  97	1	37	38	39	42
  98	2	40	38	39	41
  99	2	40	38	39	42
 100	5	30	31	32	38
 101	2	33	31	32	38
 102	7	25	31	32	38
 103	4	32	38	37	43
 104	6	32	38	39	41
 105	6	32	38	39	42
 106	5	31	32	38	37
 107	7	31	32	38	39
 108	2	31	32	38	40
 109	1	34	32	38	37
 110	6	34	32	38	39
 111	2	34	32	38	40
 112	1	35	32	38	37
 113	6	35	32	38	39
 114	2	35	32	38	40
 115	4	50	44	45	46
 116	3	50	44	45	47
 117	1	44	45	46	48
 118	1	44	45	46	49
 119	2	47	45	46	48
 120	2	47	45	46	49
 121	5	37	38	39	45
 122	2	40	38	39	45
 123	7	32	38	39	45
 124	4	39	45	44	50
 125	6	39	45	46	48
 126	6	39	45	46	49
 127	5	38	39	45	44
 128	7	38	39	45	46
 129	2	38	39	45	47
 130	1	41	39	45	44
 131	6	41	39	45	46
 132	2	41	39	45	47
 133	1	42	39	45	44
 134	6	42	39	45	46
 135	2	42	39	45	47
 136	4	57	51	52	53
 137	3	57	51	52	54
 138	1	51	52	53	55
 139	1	51	52	53	56
 140	2	54	52	53	55
 141	2	54	52	53	56
 142	5	44	45	46	52
 143	2	47	45	46	52
 144	7	39	45	46	52
 145	4	46	52	51	57
 146	6	46	52	53	55
 147	6	46	52	53	56
 148	5	45	46	52	51
 149	7	45	46	52	53
 150	2	45	46	52	54
 151	1	48	46	52	51
 152	6	48	46	52	53
 153	2	48	46	52	54
 154	1	49	46	52	51
 155	6	49	46	52	53
 156	2	49	46	52	54
 157	4	64	58	59	60
 158	3	64	58	59	61
 159	1	58	59	60	62
 160	1	58	59	60	63
 161	2	61	59	60	62
 162	2	61	59	60	63
 163	5	51	52	53	59
 164	2	54	52	53	59
 165	7	46	52	53	59
 166	4	53	59	58	64
 167	6	53	59	60	62
 168	6	53	59	60	63
 169	5	52	53	59	58
 170	7	52	53	59	60
 171	2	52	53	59	61
 172	1	55	53	59	58
 173	6	55	53	59	60
 174	2	55	53	59	61
 175	1	56	53	59	58
 176	6	56	53	59	60
 177	2	56	53	59	61
 178	4	71	65	66	67
 179	3	71	65	66	68
 180	1	65	66	67	69
 181	1	65	66	67	70
 182	2	68	66	67	69
 183	2	68	66	67	70
 184	5	58	59	60	66
 185	2	61	59	60	66
 186	7	53	59	60	66
 187	4	60	66	65	71
 188	6	60	66	67	69
 189	6	60	66	67	70
 190	5	59	60	66	65
 191	7	59	60	66	67
 192	2	59	60	66	68
 193	1	62	60	66	65
 194	6	62	60	66	67
 195	2	62	60	66	68
 196	1	63	60	66	65
 197	6	63	60	66	67
 198	2	63	60	66	68
 199	4	78	72	73	74
 200	3	78	72	73	75
 201	1	72	73	74	76
 202	1	72	73	74	77
 203	2	75	73	74	76
 204	2	75	73	74	77
 205	5	65	66	67	73
 206	2	68	66	67	73
 207	7	60	66	67	73
 208	4	67	73	72	78
 209	6	67	73	74	76
 210	6	67	73	74	77
 211	5	66	67	73	72
 212	7	66	67	73	74
 213	2	66	67	73	75
 214	1	69	67	73	72
 215	6	69	67	73	74
 216	2	69	67	73	75
 217	1	70	67	73	72
 218	6	70	67	73	74
 219	2	70	67	73	75
 220	4	85	79	80	81
 221	3	85	79	80	82
 222	1	79	80	81	83
 223	1	79	80	81	84
 224	2	82	80	81	83
 225	2	82	80	81	84
 226	5	72	73	74	80
 227	2	75	73	74	80
 228	7	67	73	74	80
 229	4	74	80	79	85
 230	6	74	80	81	83
 231	6	74	80	81	84
 232	5	73	74	80	79
 233	7	73	74	80	81
 234	2	73	74	80	82
 235	1	76	74	80	79
 236	6	76	74	80	81
 237	2	76	74	80	82
 238	1	77	74	80	79
 239	6	77	74	80	81
 240	2	77	74	80	82
 241	4	92	86	87	88
 242	3	92	86	87	89
 243	1	86	87	88	90
 244	1	86	87	88	91
 245	2	89	87	88	90
 246	2	89	87	88	91
 247	5	79	80	81	87
 248	2	82	80	81	87
 249	7	74	80	81	87
 250	4	81	87	86	92
 251	6	81	87	88	90
 252	6	81	87	88	91
 253	5	80	81	87	86
 254	7	80	81	87	88
 255	2	80	81	87	89
 256	1	83	81	87	86
 257	6	83	81	87	88
 258	2	83	81	87	89
 259	1	84	81	87	86
 260	6	84	81	87	88
 261	2	84	81	87	89
 262	4	99	93	94	95
 263	3	99	93	94	96
 264	1	93	94	95	97
 265	1	93	94	95	98
 266	2	96	94	95	97
 267	2	96	94	95	98
 268	5	86	87	88	94
 269	2	89	87	88	94
 270	7	81	87	88	94
 271	4	88	94	93	99
 272	6	88	94	95	97
 273	6	88	94	95	98
 274	5	87	88	94	93
 275	7	87	88	94	95
 276	2	87	88	94	96
 277	1	90	88	94	93
 278	6	90	88	94	95
 279	2	90	88	94	96
 280	1	91	88	94	93
 281	6	91	88	94	95
 282	2	91	88	94	96
 283	4	106	100	101	102
 284	3	106	100	101	103
 285	1	100	101	102	104
 286	1	100	101	102	105
 287	2	103	101	102	104
 288	2	103	101	102	105
 289	5	93	94	95	101
 290	2	96	94	95	101
 291	7	88	94	95	101
 292	4	95	101	100	106
 293	6	95	101	102	104
 294	6	95	101	102	105
 295	5	94	95	101	100
 296	7	94	95	101	102
 297	2	94	95	101	103
 298	1	97	95	101	100
 299	6	97	95	101	102
 300	2	97	95	101	103
 301	1	98	95	101	100
 302	6	98	95	101	102
 303	2	98	95	101	103
 304	4	114	107	108	109
 305	3	114	107	108	110
 306	1	107	108	109	111
 307	1	107	108	109	112
 308	1	107	108	109	113
 309	2	110	108	109	111
 310	2	110	108	109	112
 311	2	110	108	109	113
 312	5	100	101	102	108
 313	2	103	101	102	108
 314	7	95	101	102	108
 315	4	102	108	107	114
 316	6	102	108	109	111
 317	6	102	108	109	112
 318	6	102	108	109	113
 319	5	101	102	108	107
 320	7	101	102	108	109
 321	2	101	102	108	110
 322	1	104	102	108	107
 323	6	104	102	108	109
 324	2	104	102	108	110
 325	1	105	102	108	107
 326	6	105	102	108	109
 327	2	105	102	108	110

